# vtk DataFile Version 4.0
test
ASCII

DATASET STRUCTURED_GRID
DIMENSIONS 20 20 1
POINTS 400 float
1.3 1.0 1.0
1.2837451725101903 1.097409840761405 1.0
1.236742152818918 1.1842638138069004 1.0
1.164084447436728 1.2511499434787585 1.0
1.0736456461422397 1.290820079781799 1.0
0.9752261963583003 1.298975347902001 1.0
0.8794913726041093 1.2747319979965173 1.0
0.7968155285122778 1.2207171732019395 1.0
0.7361578746380533 1.142784217911122 1.0
0.7040916089791833 1.0493783770842202 1.0
0.7040916089791833 0.9506216229157799 1.0
0.7361578746380533 0.8572157820888779 1.0
0.7968155285122775 0.7792828267980606 1.0
0.879491372604109 0.7252680020034828 1.0
0.9752261963583002 0.701024652097999 1.0
1.0736456461422397 0.7091799202182009 1.0
1.164084447436728 0.7488500565212414 1.0
1.236742152818918 0.8157361861930996 1.0
1.2837451725101903 0.9025901592385949 1.0
1.3 0.9999999999999999 1.0
1.2842105263157895 1.0 1.0526315789473684
1.2688112160622858 1.0922830070371206 1.0526315789473684
1.2242820395126592 1.1745657183433793 1.0526315789473684
1.1554484238874265 1.237931525400929 1.0526315789473684
1.0697695595031744 1.2755137597932833 1.0526315789473684
0.9765300807604951 1.2832398032755798 1.0526315789473684
0.885833931940735 1.2602724191545953 1.0526315789473684
0.8075094480642631 1.2091004798755216 1.0526315789473684
0.7500443022886821 1.1352692590736946 1.0526315789473684
0.7196657348223842 1.046779515132419 1.0526315789473684
0.7196657348223842 0.9532204848675809 1.0526315789473684
0.750044302288682 0.8647307409263054 1.0526315789473684
0.807509448064263 0.7908995201244785 1.0526315789473684
0.8858339319407349 0.7397275808454048 1.0526315789473684
0.9765300807604949 0.7167601967244202 1.0526315789473684
1.0697695595031744 0.7244862402067166 1.0526315789473684
1.1554484238874265 0.7620684745990708 1.0526315789473684
1.2242820395126592 0.8254342816566207 1.0526315789473684
1.2688112160622858 0.9077169929628793 1.0526315789473684
1.2842105263157895 0.9999999999999999 1.0526315789473684
1.268421052631579 1.0 1.1052631578947367
1.2538772596143808 1.087156173312836 1.1052631578947367
1.2118219262064005 1.1648676228798582 1.1052631578947367
1.146812400338125 1.2247131073230997 1.1052631578947367
1.0658934728641092 1.2602074398047676 1.1052631578947367
0.9778339651626897 1.2675042586491587 1.1052631578947367
0.8921764912773609 1.2458128403126734 1.1052631578947367
0.8182033676162486 1.1974837865491037 1.1052631578947367
0.7639307299393109 1.127754300236267 1.1052631578947367
0.735239860665585 1.0441806531806181 1.1052631578947367
0.735239860665585 0.955819346819382 1.1052631578947367
0.7639307299393108 0.8722456997637329 1.1052631578947367
0.8182033676162483 0.8025162134508963 1.1052631578947367
0.8921764912773608 0.7541871596873267 1.1052631578947367
0.9778339651626896 0.7324957413508413 1.1052631578947367
1.0658934728641092 0.7397925601952323 1.1052631578947367
1.146812400338125 0.7752868926769002 1.1052631578947367
1.2118219262064003 0.8351323771201418 1.1052631578947367
1.2538772596143808 0.9128438266871638 1.1052631578947367
1.268421052631579 0.9999999999999999 1.1052631578947367
1.2526315789473683 1.0 1.1578947368421053
1.238943303166476 1.0820293395885516 1.1578947368421053
1.1993618129001415 1.1551695274163372 1.1578947368421053
1.1381763767888236 1.2114946892452703 1.1578947368421053
1.062017386225044 1.2449011198162518 1.1578947368421053
0.9791378495648845 1.2517687140227376 1.1578947368421053
0.8985190506139867 1.2313532614707514 1.1578947368421053
0.8288972871682339 1.1858670932226858 1.1578947368421053
0.7778171575899396 1.1202393413988396 1.1578947368421053
0.750813986508786 1.041581791228817 1.1578947368421053
0.750813986508786 0.958418208771183 1.1578947368421053
0.7778171575899396 0.8797606586011604 1.1578947368421053
0.8288972871682337 0.8141329067773142 1.1578947368421053
0.8985190506139866 0.7686467385292487 1.1578947368421053
0.9791378495648844 0.7482312859772624 1.1578947368421053
1.062017386225044 0.7550988801837482 1.1578947368421053
1.1381763767888236 0.7885053107547296 1.1578947368421053
1.1993618129001415 0.8448304725836628 1.1578947368421053
1.238943303166476 0.9179706604114484 1.1578947368421053
1.2526315789473683 0.9999999999999999 1.1578947368421053
1.236842105263158 1.0 1.2105263157894737
1.2240093467185713 1.0769025058642672 1.2105263157894737
1.1869016995938826 1.145471431952816 1.2105263157894737
1.129540353239522 1.1982762711674408 1.2105263157894737
1.0581412995859787 1.2295947998277361 1.2105263157894737
0.9804417339670792 1.2360331693963165 1.2105263157894737
0.9048616099506126 1.2168936826288295 1.2105263157894737
0.8395912067202193 1.1742503998962681 1.2105263157894737
0.7917035852405684 1.1127243825614122 1.2105263157894737
0.7663881123519869 1.0389829292770159 1.2105263157894737
0.7663881123519868 0.9610170707229841 1.2105263157894737
0.7917035852405684 0.8872756174385878 1.2105263157894737
0.8395912067202191 0.8257496001037321 1.2105263157894737
0.9048616099506124 0.7831063173711706 1.2105263157894737
0.9804417339670791 0.7639668306036835 1.2105263157894737
1.0581412995859787 0.7704052001722639 1.2105263157894737
1.129540353239522 0.8017237288325589 1.2105263157894737
1.1869016995938826 0.8545285680471839 1.2105263157894737
1.2240093467185713 0.9230974941357328 1.2105263157894737
1.236842105263158 0.9999999999999999 1.2105263157894737
1.2210526315789474 1.0 1.263157894736842
1.2090753902706666 1.0717756721399827 1.263157894736842
1.1744415862876239 1.135773336489295 1.263157894736842
1.1209043296902208 1.1850578530896116 1.263157894736842
1.0542652129469134 1.2142884798392204 1.263157894736842
0.9817456183692739 1.2202976247698953 1.263157894736842
0.9112041692872384 1.2024341037869075 1.263157894736842
0.8502851262722046 1.1626337065698502 1.263157894736842
0.8055900128911971 1.1052094237239847 1.263157894736842
0.7819622381951876 1.036384067325215 1.263157894736842
0.7819622381951876 0.9636159326747852 1.263157894736842
0.8055900128911971 0.8947905762760153 1.263157894736842
0.8502851262722045 0.8373662934301499 1.263157894736842
0.9112041692872382 0.7975658962130926 1.263157894736842
0.9817456183692738 0.7797023752301045 1.263157894736842
1.0542652129469134 0.7857115201607796 1.263157894736842
1.1209043296902206 0.8149421469103884 1.263157894736842
1.1744415862876239 0.864226663510705 1.263157894736842
1.2090753902706666 0.9282243278600173 1.263157894736842
1.2210526315789474 1.0 1.263157894736842
1.2052631578947368 1.0 1.3157894736842106
1.1941414338227618 1.0666488384156982 1.3157894736842106
1.1619814729813651 1.126075241025774 1.3157894736842106
1.112268306140919 1.1718394350117822 1.3157894736842106
1.0503891263078482 1.1989821598507047 1.3157894736842106
0.9830495027714686 1.2045620801434742 1.3157894736842106
0.9175467286238642 1.1879745249449856 1.3157894736842106
0.86097904582419 1.1510170132434323 1.3157894736842106
0.819476440541826 1.0976944648865572 1.3157894736842106
0.7975363640383886 1.0337852053734138 1.3157894736842106
0.7975363640383886 0.9662147946265862 1.3157894736842106
0.8194764405418259 0.9023055351134428 1.3157894736842106
0.8609790458241899 0.8489829867565678 1.3157894736842106
0.9175467286238641 0.8120254750550145 1.3157894736842106
0.9830495027714685 0.7954379198565257 1.3157894736842106
1.0503891263078482 0.8010178401492953 1.3157894736842106
1.112268306140919 0.8281605649882178 1.3157894736842106
1.161981472981365 0.8739247589742261 1.3157894736842106
1.1941414338227618 0.9333511615843018 1.3157894736842106
1.2052631578947368 1.0 1.3157894736842106
1.1894736842105262 1.0 1.368421052631579
1.179207477374857 1.0615220046914138 1.368421052631579
1.1495213596751062 1.1163771455622529 1.368421052631579
1.1036322825916178 1.1586210169339528 1.368421052631579
1.046513039668783 1.183675839862189 1.368421052631579
0.9843533871736634 1.1888265355170533 1.368421052631579
0.9238892879604901 1.1735149461030634 1.368421052631579
0.8716729653761754 1.1394003199170144 1.368421052631579
0.8333628681924548 1.0901795060491297 1.368421052631579
0.8131104898815895 1.0311863434216129 1.368421052631579
0.8131104898815895 0.9688136565783873 1.368421052631579
0.8333628681924548 0.9098204939508703 1.368421052631579
0.8716729653761753 0.8605996800829857 1.368421052631579
0.92388928796049 0.8264850538969365 1.368421052631579
0.9843533871736633 0.8111734644829468 1.368421052631579
1.046513039668783 0.8163241601378111 1.368421052631579
1.1036322825916176 0.8413789830660472 1.368421052631579
1.1495213596751062 0.8836228544377471 1.368421052631579
1.179207477374857 0.9384779953085862 1.368421052631579
1.1894736842105262 1.0 1.368421052631579
1.1736842105263159 1.0 1.4210526315789473
1.1642735209269524 1.0563951709671293 1.4210526315789473
1.1370612463688472 1.1066790500987318 1.4210526315789473
1.0949962590423163 1.1454025988561234 1.4210526315789473
1.0426369530297177 1.1683695198736732 1.4210526315789473
0.985657271575858 1.1730909908906322 1.4210526315789473
0.9302318472971158 1.1590553672611417 1.4210526315789473
0.8823668849281607 1.1277836265905965 1.4210526315789473
0.8472492958430835 1.0826645472117022 1.4210526315789473
0.8286846157247904 1.0285874814698117 1.4210526315789473
0.8286846157247902 0.9714125185301883 1.4210526315789473
0.8472492958430835 0.9173354527882978 1.4210526315789473
0.8823668849281607 0.8722163734094035 1.4210526315789473
0.9302318472971157 0.8409446327388584 1.4210526315789473
0.985657271575858 0.8269090091093678 1.4210526315789473
1.0426369530297177 0.8316304801263268 1.4210526315789473
1.0949962590423161 0.8545974011438766 1.4210526315789473
1.1370612463688472 0.8933209499012682 1.4210526315789473
1.1642735209269524 0.9436048290328707 1.4210526315789473
1.1736842105263159 1.0 1.4210526315789473
1.1578947368421053 1.0 1.4736842105263157
1.1493395644790476 1.0512683372428449 1.4736842105263157
1.1246011330625885 1.0969809546352107 1.4736842105263157
1.0863602354930149 1.132184180778294 1.4736842105263157
1.0387608663906525 1.1530631998851575 1.4736842105263157
0.9869611559780528 1.157355446264211 1.4736842105263157
0.9365744066337417 1.1445957884192197 1.4736842105263157
0.8930608044801461 1.1161669332641786 1.4736842105263157
0.8611357234937123 1.0751495883742748 1.4736842105263157
0.8442587415679912 1.0259886195180106 1.4736842105263157
0.8442587415679912 0.9740113804819894 1.4736842105263157
0.8611357234937123 0.9248504116257252 1.4736842105263157
0.893060804480146 0.8838330667358214 1.4736842105263157
0.9365744066337416 0.8554042115807804 1.4736842105263157
0.9869611559780527 0.842644553735789 1.4736842105263157
1.0387608663906525 0.8469368001148425 1.4736842105263157
1.0863602354930146 0.867815819221706 1.4736842105263157
1.1246011330625885 0.9030190453647893 1.4736842105263157
1.1493395644790476 0.9487316627571551 1.4736842105263157
1.1578947368421053 1.0 1.4736842105263157
1.1421052631578947 1.0 1.526315789473684
1.1344056080311429 1.0461415035185602 1.526315789473684
1.1121410197563295 1.0872828591716897 1.526315789473684
1.0777242119437134 1.1189657627004646 1.526315789473684
1.0348847797515872 1.1377568798966418 1.526315789473684
0.9882650403802475 1.14161990163779 1.526315789473684
0.9429169659703676 1.1301362095772975 1.526315789473684
0.9037547240321315 1.104550239937761 1.526315789473684
0.875022151144341 1.0676346295368473 1.526315789473684
0.8598328674111921 1.0233897575662096 1.526315789473684
0.8598328674111921 0.9766102424337905 1.526315789473684
0.875022151144341 0.9323653704631527 1.526315789473684
0.9037547240321315 0.8954497600622392 1.526315789473684
0.9429169659703674 0.8698637904227025 1.526315789473684
0.9882650403802474 0.8583800983622101 1.526315789473684
1.0348847797515872 0.8622431201033582 1.526315789473684
1.0777242119437132 0.8810342372995354 1.526315789473684
1.1121410197563295 0.9127171408283103 1.526315789473684
1.1344056080311429 0.9538584964814397 1.526315789473684
1.1421052631578947 1.0 1.526315789473684
1.1263157894736842 1.0 1.5789473684210527
1.1194716515832381 1.0410146697942757 1.5789473684210527
1.0996809064500708 1.0775847637081686 1.5789473684210527
1.0690881883944119 1.1057473446226351 1.5789473684210527
1.031008693112522 1.1224505599081258 1.5789473684210527
0.9895689247824423 1.1258843570113688 1.5789473684210527
0.9492595253069933 1.1156766307353756 1.5789473684210527
0.9144486435841169 1.092933546611343 1.5789473684210527
0.8889085787949699 1.0601196706994198 1.5789473684210527
0.875406993254393 1.0207908956144085 1.5789473684210527
0.875406993254393 0.9792091043855915 1.5789473684210527
0.8889085787949698 0.9398803293005802 1.5789473684210527
0.9144486435841169 0.9070664533886571 1.5789473684210527
0.9492595253069933 0.8843233692646244 1.5789473684210527
0.9895689247824422 0.8741156429886312 1.5789473684210527
1.031008693112522 0.8775494400918741 1.5789473684210527
1.0690881883944117 0.8942526553773649 1.5789473684210527
1.0996809064500708 0.9224152362918314 1.5789473684210527
1.1194716515832381 0.9589853302057242 1.5789473684210527
1.1263157894736842 1.0 1.5789473684210527
1.1105263157894738 1.0 1.631578947368421
1.1045376951353334 1.0358878360699912 1.631578947368421
1.0872207931438118 1.0678866682446475 1.631578947368421
1.0604521648451104 1.0925289265448057 1.631578947368421
1.0271326064734567 1.1071442399196103 1.631578947368421
0.9908728091846369 1.1101488123849477 1.631578947368421
0.9556020846436192 1.1012170518934536 1.631578947368421
0.9251425631361023 1.081316853284925 1.631578947368421
0.9027950064455986 1.0526047118619923 1.631578947368421
0.8909811190975938 1.0181920336626074 1.631578947368421
0.8909811190975938 0.9818079663373925 1.631578947368421
0.9027950064455985 0.9473952881380077 1.631578947368421
0.9251425631361022 0.918683146715075 1.631578947368421
0.9556020846436191 0.8987829481065462 1.631578947368421
0.9908728091846369 0.8898511876150523 1.631578947368421
1.0271326064734567 0.8928557600803898 1.631578947368421
1.0604521648451104 0.9074710734551942 1.631578947368421
1.0872207931438118 0.9321133317553525 1.631578947368421
1.1045376951353334 0.9641121639300086 1.631578947368421
1.1105263157894738 1.0 1.631578947368421
1.0947368421052632 1.0 1.6842105263157894
1.0896037386874287 1.0307610023457068 1.6842105263157894
1.074760679837553 1.0581885727811264 1.6842105263157894
1.051816141295809 1.0793105084669765 1.6842105263157894
1.0232565198343915 1.0918379199310946 1.6842105263157894
0.9921766935868317 1.0944132677585268 1.6842105263157894
0.961944643980245 1.0867574730515317 1.6842105263157894
0.9358364826880877 1.0697001599585072 1.6842105263157894
0.9166814340962274 1.0450897530245649 1.6842105263157894
0.9065552449407948 1.0155931717108064 1.6842105263157894
0.9065552449407946 0.9844068282891937 1.6842105263157894
0.9166814340962273 0.9549102469754351 1.6842105263157894
0.9358364826880876 0.9302998400414928 1.6842105263157894
0.9619446439802449 0.9132425269484682 1.6842105263157894
0.9921766935868316 0.9055867322414733 1.6842105263157894
1.0232565198343915 0.9081620800689055 1.6842105263157894
1.051816141295809 0.9206894915330236 1.6842105263157894
1.074760679837553 0.9418114272188736 1.6842105263157894
1.0896037386874287 0.9692389976542931 1.6842105263157894
1.0947368421052632 1.0 1.6842105263157894
1.0789473684210527 1.0 1.736842105263158
1.0746697822395237 1.0256341686214223 1.736842105263158
1.0623005665312943 1.0484904773176054 1.736842105263158
1.0431801177465074 1.066092090389147 1.736842105263158
1.0193804331953262 1.0765315999425786 1.736842105263158
0.9934805779890264 1.0786777231321056 1.736842105263158
0.9682872033168708 1.0722978942096097 1.736842105263158
0.9465304022400731 1.0580834666320893 1.736842105263158
0.9305678617468561 1.0375747941871374 1.736842105263158
0.9221293707839956 1.0129943097590053 1.736842105263158
0.9221293707839956 0.9870056902409947 1.736842105263158
0.9305678617468561 0.9624252058128626 1.736842105263158
0.946530402240073 0.9419165333679107 1.736842105263158
0.9682872033168708 0.9277021057903903 1.736842105263158
0.9934805779890263 0.9213222768678945 1.736842105263158
1.0193804331953262 0.9234684000574213 1.736842105263158
1.0431801177465074 0.933907909610853 1.736842105263158
1.0623005665312941 0.9515095226823946 1.736842105263158
1.0746697822395237 0.9743658313785776 1.736842105263158
1.0789473684210527 1.0 1.736842105263158
1.063157894736842 1.0 1.7894736842105263
1.059735825791619 1.0205073348971379 1.7894736842105263
1.0498404532250354 1.0387923818540843 1.7894736842105263
1.034544094197206 1.0528736723113177 1.7894736842105263
1.015504346556261 1.061225279954063 1.7894736842105263
0.9947844623912211 1.0629421785056845 1.7894736842105263
0.9746297626534967 1.0578383153676878 1.7894736842105263
0.9572243217920585 1.0464667733056714 1.7894736842105263
0.9444542893974849 1.03005983534971 1.7894736842105263
0.9377034966271965 1.0103954478072044 1.7894736842105263
0.9377034966271964 0.9896045521927958 1.7894736842105263
0.9444542893974849 0.9699401646502901 1.7894736842105263
0.9572243217920584 0.9535332266943286 1.7894736842105263
0.9746297626534967 0.9421616846323122 1.7894736842105263
0.9947844623912211 0.9370578214943156 1.7894736842105263
1.015504346556261 0.938774720045937 1.7894736842105263
1.034544094197206 0.9471263276886824 1.7894736842105263
1.0498404532250354 0.9612076181459157 1.7894736842105263
1.059735825791619 0.979492665102862 1.7894736842105263
1.063157894736842 1.0 1.7894736842105263
1.0473684210526315 1.0 1.8421052631578947
1.0448018693437142 1.0153805011728534 1.8421052631578947
1.0373803399187767 1.0290942863905632 1.8421052631578947
1.0259080706479045 1.0396552542334883 1.8421052631578947
1.0116282599171957 1.0459189599655472 1.8421052631578947
0.9960883467934158 1.0472066338792634 1.8421052631578947
0.9809723219901225 1.0433787365257658 1.8421052631578947
0.9679182413440438 1.0348500799792537 1.8421052631578947
0.9583407170481136 1.0225448765122824 1.8421052631578947
0.9532776224703974 1.0077965858554032 1.8421052631578947
0.9532776224703974 0.9922034141445968 1.8421052631578947
0.9583407170481136 0.9774551234877176 1.8421052631578947
0.9679182413440438 0.9651499200207464 1.8421052631578947
0.9809723219901225 0.9566212634742342 1.8421052631578947
0.9960883467934158 0.9527933661207366 1.8421052631578947
1.0116282599171957 0.9540810400344527 1.8421052631578947
1.0259080706479045 0.9603447457665117 1.8421052631578947
1.0373803399187764 0.9709057136094368 1.8421052631578947
1.0448018693437142 0.9846194988271466 1.8421052631578947
1.0473684210526315 1.0 1.8421052631578947
1.0315789473684212 1.0 1.894736842105263
1.0298679128958095 1.010253667448569 1.894736842105263
1.0249202266125177 1.0193961909270421 1.894736842105263
1.017272047098603 1.0264368361556588 1.894736842105263
1.0077521732781305 1.0306126399770315 1.894736842105263
0.9973922311956106 1.0314710892528423 1.894736842105263
0.9873148813267483 1.028919157683844 1.894736842105263
0.9786121608960292 1.0232333866528358 1.894736842105263
0.9722271446987424 1.015029917674855 1.894736842105263
0.9688517483135982 1.005197723903602 1.894736842105263
0.9688517483135982 0.9948022760963979 1.894736842105263
0.9722271446987424 0.984970082325145 1.894736842105263
0.9786121608960292 0.9767666133471643 1.894736842105263
0.9873148813267483 0.9710808423161561 1.894736842105263
0.9973922311956105 0.9685289107471577 1.894736842105263
1.0077521732781305 0.9693873600229684 1.894736842105263
1.017272047098603 0.9735631638443412 1.894736842105263
1.0249202266125177 0.9806038090729579 1.894736842105263
1.0298679128958095 0.9897463325514311 1.894736842105263
1.0315789473684212 1.0 1.894736842105263
1.0157894736842106 1.0 1.9473684210526314
1.0149339564479047 1.0051268337242845 1.9473684210526314
1.012460113306259 1.009698095463521 1.9473684210526314
1.0086360235493015 1.0132184180778294 1.9473684210526314
1.0038760866390652 1.0153063199885157 1.9473684210526314
0.9986961155978052 1.0157355446264211 1.9473684210526314
0.9936574406633741 1.014459578841922 1.9473684210526314
0.9893060804480146 1.011616693326418 1.9473684210526314
0.9861135723493712 1.0075149588374275 1.9473684210526314
0.984425874156799 1.0025988619518011 1.9473684210526314
0.984425874156799 0.997401138048199 1.9473684210526314
0.9861135723493712 0.9924850411625725 1.9473684210526314
0.9893060804480146 0.9883833066735821 1.9473684210526314
0.9936574406633741 0.985540421158078 1.9473684210526314
0.9986961155978052 0.9842644553735789 1.9473684210526314
1.0038760866390652 0.9846936800114843 1.9473684210526314
1.0086360235493015 0.9867815819221706 1.9473684210526314
1.012460113306259 0.9903019045364789 1.9473684210526314
1.0149339564479047 0.9948731662757155 1.9473684210526314
1.0157894736842106 1.0 1.9473684210526314
1.0 1.0 2.0
1.0 1.0 2.0
1.0 1.0 2.0
1.0 1.0 2.0
1.0 1.0 2.0
1.0 1.0 2.0
1.0 1.0 2.0
1.0 1.0 2.0
1.0 1.0 2.0
1.0 1.0 2.0
1.0 1.0 2.0
1.0 1.0 2.0
1.0 1.0 2.0
1.0 1.0 2.0
1.0 1.0 2.0
1.0 1.0 2.0
1.0 1.0 2.0
1.0 1.0 2.0
1.0 1.0 2.0
1.0 1.0 2.0

CELL_DATA 361
SCALARS Cp float
LOOKUP_TABLE default
0.0
0.0
0.0
0.0
0.04184523829733576
0.2695086732656106
0.6532108595496554
1.0825418311044614
1.4177424962502
1.5441684281011563
1.4177424962501983
1.0825418311044623
0.6532108595496566
0.2695086732656117
0.041845238297336294
0.0
0.0
0.0
0.0
0.0
0.0
0.0
0.0
0.04184523829733593
0.2695086732656103
0.6532108595496582
1.0825418311044632
1.4177424962501965
1.5441684281011563
1.4177424962501983
1.0825418311044603
0.6532108595496554
0.2695086732656119
0.041845238297336454
0.0
0.0
0.0
0.0
0.0
0.0
0.0
0.0
0.041845238297335635
0.2695086732656093
0.6532108595496559
1.0825418311044588
1.4177424962501977
1.5441684281011572
1.417742496250199
1.0825418311044621
0.6532108595496546
0.26950867326561045
0.041845238297336294
0.0
0.0
0.0
0.0
0.0
0.0
0.0
0.0
0.04184523829733626
0.26950867326560973
0.6532108595496541
1.0825418311044603
1.4177424962502
1.5441684281011578
1.4177424962501988
1.0825418311044623
0.6532108595496564
0.2695086732656106
0.041845238297336294
0.0
0.0
0.0
0.0
0.0
0.0
0.0
0.0
0.04184523829733649
0.2695086732656088
0.6532108595496554
1.0825418311044623
1.417742496250196
1.544168428101154
1.4177424962501983
1.082541831104461
0.6532108595496562
0.26950867326561
0.04184523829733588
0.0
0.0
0.0
0.0
0.0
0.0
0.0
0.0
0.041845238297336294
0.2695086732656075
0.6532108595496556
1.0825418311044614
1.4177424962501988
1.5441684281011572
1.4177424962501977
1.0825418311044601
0.6532108595496556
0.2695086732656105
0.04184523829733573
0.0
0.0
0.0
0.0
0.0
0.0
0.0
0.0
0.04184523829733559
0.26950867326561107
0.653210859549658
1.0825418311044623
1.4177424962501988
1.5441684281011592
1.4177424962502012
1.0825418311044628
0.6532108595496576
0.26950867326561107
0.04184523829733642
0.0
0.0
0.0
0.0
0.0
0.0
0.0
0.0
0.04184523829733599
0.2695086732656102
0.6532108595496529
1.082541831104461
1.4177424962501983
1.5441684281011543
1.417742496250196
1.0825418311044614
0.6532108595496564
0.26950867326561
0.04184523829733593
0.0
0.0
0.0
0.0
0.0
0.0
0.0
0.0
0.04184523829733623
0.26950867326560995
0.6532108595496594
1.0825418311044621
1.4177424962501988
1.5441684281011572
1.417742496250199
1.0825418311044614
0.6532108595496572
0.2695086732656114
0.04184523829733631
0.0
0.0
0.0
0.0
0.0
0.0
0.0
0.0
0.04184523829733655
0.2695086732656128
0.6532108595496554
1.0825418311044603
1.417742496250199
1.5441684281011594
1.4177424962502
1.0825418311044623
0.6532108595496569
0.26950867326561295
0.04184523829733663
0.0
0.0
0.0
0.0
0.0
0.0
0.0
0.0
0.041845238297336274
0.26950867326561107
0.6532108595496497
1.0825418311044632
1.4177424962501983
1.544168428101154
1.4177424962501972
1.082541831104459
0.6532108595496539
0.26950867326561156
0.04184523829733644
0.0
0.0
0.0
0.0
0.0
0.0
0.0
0.0
0.041845238297335635
0.26950867326561156
0.6532108595496529
1.0825418311044643
1.4177424962501977
1.5441684281011556
1.4177424962501988
1.082541831104459
0.6532108595496554
0.26950867326560946
0.04184523829733637
0.0
0.0
0.0
0.0
0.0
0.0
0.0
0.0
0.0418452382973361
0.26950867326561273
0.6532108595496539
1.0825418311044628
1.4177424962501983
1.5441684281011578
1.417742496250199
1.0825418311044603
0.6532108595496582
0.26950867326560835
0.04184523829733594
0.0
0.0
0.0
0.0
0.0
0.0
0.0
0.0
0.041845238297334816
0.26950867326561573
0.6532108595496539
1.0825418311044588
1.4177424962501972
1.5441684281011556
1.417742496250199
1.0825418311044621
0.6532108595496564
0.26950867326561184
0.0418452382973357
0.0
0.0
0.0
0.0
0.0
0.0
0.0
0.0
0.04184523829733307
0.2695086732656166
0.653210859549659
1.0825418311044577
1.4177424962501999
1.5441684281011572
1.4177424962501972
1.0825418311044623
0.6532108595496559
0.26950867326561306
0.04184523829733681
0.0
0.0
0.0
0.0
0.0
0.0
0.0
0.0
0.04184523829733308
0.2695086732656175
0.6532108595496505
1.0825418311044577
1.417742496250201
1.5441684281011578
1.4177424962501999
1.0825418311044601
0.6532108595496533
0.26950867326561384
0.04184523829733626
0.0
0.0
0.0
0.0
0.0
0.0
0.0
0.0
0.041845238297332985
0.26950867326561617
0.6532108595496452
1.082541831104465
1.4177424962502017
1.5441684281011563
1.4177424962502017
1.082541831104459
0.6532108595496549
0.2695086732656171
0.0418452382973365
0.0
0.0
0.0
0.0
0.0
0.0
0.0
0.0
0.04184523829733308
0.26950867326561556
0.6532108595496491
1.0825418311044683
1.4177424962501965
1.5441684281011563
1.4177424962501983
1.0825418311044621
0.6532108595496559
0.2695086732656175
0.04184523829733642
0.0
0.0
0.0
0.0
0.0
0.0
0.0
0.0
0.041845238297332825
0.2695086732656163
0.6532108595496477
1.082541831104472
1.4177424962501823
1.5441684281011578
1.4177424962501863
1.082541831104472
0.6532108595496477
0.2695086732656163
0.041845238297332825
0.0
0.0
0.0
0.0
